2
Properties=id:I:1:pos:R:3:type:S:1 energy=-10.0
1 0.0 0.0 0.0 C
2 1.2 0.0 0.0 O
