2
Properties=species:S:1:pos:R:3:forces:R:3 energy=-15.2 Lattice="10.0 0.0 0.0 0.0 10.0 0.0 0.0 0.0 10.0"
C 0.0 0.0 0.0 0.1 0.2 0.3
O 1.2 0.0 0.0 -0.1 -0.2 -0.3
