ITEM: TIMESTEP
0
ITEM: NUMBER OF ATOMS
2
ITEM: BOX BOUNDS pp pp pp
0.0 5.43
0.0 5.43
0.0 5.43
ITEM: ATOMS id type element x y z
1 1 Si 0.0 0.0 0.0
2 1 Si 1.36 1.36 1.36
