Si trajectory
5.43
  1.0  0.0  0.0
  0.0  1.0  0.0
  0.0  0.0  1.0
Si
4
Direct configuration=     1
  0.000  0.000  0.000
  0.500  0.500  0.000
  0.500  0.000  0.500
  0.000  0.500  0.500
Direct configuration=     2
  0.010  0.005  0.003
  0.510  0.505  0.003
  0.510  0.005  0.503
  0.010  0.505  0.503
Direct configuration=     3
  0.020  0.010  0.006
  0.520  0.510  0.006
  0.520  0.010  0.506
  0.020  0.510  0.506
