ITEM: TIMESTEP
100
ITEM: NUMBER OF ATOMS
2
ITEM: BOX BOUNDS pp pp pp
0.0 10.0
0.0 11.0
0.0 12.0
ITEM: ATOMS id type x y z
1 1 1.0 2.0 3.0
2 2 4.0 5.0 6.0
