ITEM: TIMESTEP
0
ITEM: NUMBER OF ATOMS
2
ITEM: BOX BOUNDS pp pp pp
0.0 10.0
0.0 11.0
0.0 12.0
ITEM: ATOMS id element x y z
1 Si 1.0 2.0 3.0
2 O  4.0 5.0 6.0
