&CELL
  ABC 12.0 12.0 12.0
&END CELL
&COORD
  H 0.0 0.0 0.0
  O 1.0 1.0 1.0
&END COORD
